/*--------------------------------*- C++ -*----------------------------------*\
| =========                 |                                                 |
| \\      /  F ield         | OpenFOAM: The Open Source CFD Toolbox           |
|  \\    /   O peration     | Version:  v1806                                 |
|   \\  /    A nd           | Web:      www.OpenFOAM.com                      |
|    \\/     M anipulation  |                                                 |
\*---------------------------------------------------------------------------*/
FoamFile
{
    version     2.0;
    format      ascii;
    class       volScalarField;
    location    "0.025";
    object      F;
}
// * * * * * * * * * * * * * * * * * * * * * * * * * * * * * * * * * * * * * //

dimensions      [0 0 0 1 0 0 0];


internalField   nonuniform List<scalar> 
37
(
75.4646
55.0603
90.8235
54.5931
62.8272
66.8773
86.3245
94.7735
55.6021
63.7475
75.6111
85.0619
71.3314
58.3335
54.9767
94.1653
54.7824
80.9736
69.6299
75.0156
82.3708
95.7095
54.3183
95.0572
82.4866
75.9903
63.5332
95.3486
87.4832
78.3721
70.3854
62.8228
68.7865
96.2245
88.3075
83.9772
66.2768
)
;

boundaryField
{
    frontAndBack
    {
        type            empty;
    }
    top
    {
        type            fixedValue;
        value           uniform 100;
    }
    left
    {
        type            zeroGradient;
    }
    bottom
    {
        type            fixedValue;
        value           uniform 50;
    }
    right
    {
        type            zeroGradient;
    }
}


// ************************************************************************* //
