/*--------------------------------*- C++ -*----------------------------------*\
| =========                 |                                                 |
| \\      /  F ield         | OpenFOAM: The Open Source CFD Toolbox           |
|  \\    /   O peration     | Version:  v1806                                 |
|   \\  /    A nd           | Web:      www.OpenFOAM.com                      |
|    \\/     M anipulation  |                                                 |
\*---------------------------------------------------------------------------*/
FoamFile
{
    version     2.0;
    format      ascii;
    class       volScalarField;
    location    "0.03";
    object      F;
}
// * * * * * * * * * * * * * * * * * * * * * * * * * * * * * * * * * * * * * //

dimensions      [0 0 0 1 0 0 0];


internalField   nonuniform List<scalar> 
37
(
75.4648
55.0602
90.8233
54.5931
62.8271
66.8772
86.3246
94.7739
55.6026
63.7474
75.6112
85.0622
71.3314
58.3332
54.9767
94.1656
54.7821
80.9739
69.6302
75.0169
82.3708
95.7093
54.3182
95.0574
82.4872
75.9905
63.5329
95.3483
87.4828
78.3722
70.3855
62.8227
68.7865
96.2244
88.3067
83.9786
66.2783
)
;

boundaryField
{
    frontAndBack
    {
        type            empty;
    }
    top
    {
        type            fixedValue;
        value           uniform 100;
    }
    left
    {
        type            zeroGradient;
    }
    bottom
    {
        type            fixedValue;
        value           uniform 50;
    }
    right
    {
        type            zeroGradient;
    }
}


// ************************************************************************* //
